ITEM: TIMESTEP
0
ITEM: NUMBER OF ATOMS
76
ITEM: BOX BOUNDS pp pp pp
0.0000000000000000e+00 1.0609090000000000e+01
0.0000000000000000e+00 1.0609090000000000e+01
0.0000000000000000e+00 1.0609090000000000e+01
ITEM: ATOMS id type q x y z
1 2 0.263067 1.61757 3.88641 3.78897
2 2 0.199641 8.62973 5.25428 9.1685
3 2 0.267759 10.3689 0.63453 3.74483
4 2 0.244385 8.59713 3.00881 7.3732
5 2 0.28311 1.10398 8.7086 0.948713
6 2 0.218671 1.01305 5.16092 7.90814
7 2 0.263385 0.361396 0.651599 8.11556
8 2 0.230408 3.46205 7.1414 2.81287
9 2 0.1705 5.43318 7.10597 0.421755
10 2 0.296398 1.56091 0.565846 2.78965
11 2 0.248501 8.61131 1.72077 4.01209
12 2 0.20328 2.80213 4.55049 6.87538
13 2 0.242924 0.0975368 7.29685 7.69914
14 2 0.257021 8.49257 1.03916 7.65724
15 2 0.236227 9.20302 4.04787 2.72013
16 2 0.257723 0.602598 9.80953 7.03233
17 2 0.187739 4.84948 5.51942 9.48358
18 2 0.240001 2.4212 7.08009 0.507685
19 2 0.311646 8.91469 8.39419 8.61678
20 2 0.275952 7.03618 0.0689728 2.77467
21 2 0.255235 7.98106 8.25437 2.33375
22 2 0.209695 2.49586 9.00795 9.07819
23 2 0.191755 7.82253 3.40321 10.5168
24 2 0.265364 8.85443 0.280118 6.36213
25 2 0.227676 2.30447 0.182969 10.4335
26 2 0.241632 7.78081 6.52903 3.2589
27 2 0.246819 3.03771 8.00567 6.92791
28 2 0.289096 4.40589 1.50472 5.19075
29 2 0.245684 8.86741 4.7055 7.29926
30 2 0.235808 1.25033 7.42429 2.89919
31 2 0.218593 2.67327 6.56298 9.36649
32 2 0.255398 5.51093 2.34023 3.85233
33 2 0.243994 4.63596 3.84095 5.30746
34 2 0.283096 2.67408 2.6934 9.78155
35 2 0.250077 0.778784 2.63166 9.21317
36 2 0.280707 7.94569 2.26308 5.45448
37 2 0.29201 7.27124 1.10093 1.37773
38 2 0.314464 4.58534 10.4132 3.14838
39 2 0.302628 9.05591 0.698195 9.232
40 2 0.288183 1.58161 1.99244 2.36736
41 2 0.318546 6.18194 10.0277 8.04768
42 2 0.302491 8.87536 7.41068 10.2182
43 2 0.22624 6.0324 3.83214 2.41879
44 2 0.185886 6.20243 4.56963 0.968496
45 2 0.233418 5.62897 2.14634 6.95628
46 2 0.279308 3.44722 3.27449 3.07859
47 2 0.221503 10.2248 6.38468 5.51417
48 2 0.29265 7.71063 7.69172 6.39534
49 2 0.239573 4.60756 8.98298 2.17429
50 2 0.218986 4.12323 2.88634 8.46546
51 2 0.263768 0.164542 5.88882 2.22707
52 2 0.24006 9.99619 2.64181 1.2921
53 2 0.244388 3.49286 1.07642 9.63841
54 2 0.227665 4.80409 9.33673 9.93194
55 2 0.200094 4.75563 6.94876 8.43086
56 2 0.202923 1.81093 6.15566 5.25964
57 2 0.23545 4.00646 5.2423 2.87249
58 2 0.205758 5.31991 4.05338 7.67954
59 2 0.224605 7.74374 2.756 3.15281
60 2 0.263135 3.12428 0.270437 7.1238
61 1 -1.05343 9.4716 3.97525 5.05196
62 1 -1.03665 7.00805 4.48222 5.06817
63 1 -1.02512 0.327424 6.5872 0.00989492
64 1 -1.04819 0.19081 8.9207 9.23052
65 1 -0.946382 2.51371 9.29905 4.50695
66 1 -0.935894 6.2949 1.14198 9.86873
67 1 -0.892399 7.26551 9.53288 10.2674
68 1 -1.09014 3.67582 4.30063 0.266245
69 1 -0.898957 5.32065 6.38084 5.85923
70 1 -0.858583 2.03736 1.40338 4.89757
71 1 -0.872734 1.25307 4.24406 0.420076
72 1 -0.828308 9.68068 10.133 0.623884
73 1 -0.946786 6.68414 10.48 5.37789
74 1 -0.940376 4.67155 1.91328 1.18593
75 1 -0.9348 0.372294 2.23678 6.29362
76 1 -0.553938 4.96412 8.93597 5.45105
ITEM: TIMESTEP
89
ITEM: NUMBER OF ATOMS
76
ITEM: BOX BOUNDS pp pp pp
0.0000000000000000e+00 1.0609090000000000e+01
0.0000000000000000e+00 1.0609090000000000e+01
0.0000000000000000e+00 1.0609090000000000e+01
ITEM: ATOMS id type q x y z
1 2 0.272298 1.63345 3.47766 4.60484
2 2 0.226803 8.42873 5.63016 8.9387
3 2 0.270103 0.597431 0.243174 3.55929
4 2 0.269038 8.81238 2.8954 7.254
5 2 0.271953 0.0002008 8.07347 1.93701
6 2 0.256828 0.15644 4.5976 7.9945
7 2 0.222494 0.271298 0.92593 8.40358
8 2 0.261053 3.18387 7.16219 3.50248
9 2 0.234445 4.96283 7.64454 0.693812
10 2 0.239945 2.52957 9.22177 2.30462
11 2 0.254999 8.81171 0.488875 3.8237
12 2 0.249869 2.11943 2.80426 7.19348
13 2 0.258722 0.598528 7.58802 7.95967
14 2 0.269487 7.19241 0.473779 7.45082
15 2 0.23396 9.42972 4.9657 1.26059
16 2 0.270491 1.17026 10.1211 6.99185
17 2 0.251947 4.96034 6.34529 8.65993
18 2 0.306645 2.31016 7.01145 0.483808
19 2 0.248391 9.16037 8.89004 8.29597
20 2 0.2638 8.07447 9.33735 3.08413
21 2 0.241895 7.77317 7.57397 1.41078
22 2 0.232697 2.97029 8.85605 9.37812
23 2 0.239376 7.58103 3.05992 9.93346
24 2 0.244234 8.99305 10.4423 6.1862
25 2 0.234936 1.13251 0.428205 0.526531
26 2 0.273417 6.02357 6.37957 3.55625
27 2 0.273399 3.50829 7.7963 7.08697
28 2 0.229215 4.59054 2.9309 4.96471
29 2 0.274283 8.75081 6.41308 6.60344
30 2 0.214968 10.5686 8.40236 4.84739
31 2 0.276466 2.30777 5.46259 8.77707
32 2 0.26165 6.07031 1.63739 3.17736
33 2 0.234268 3.90648 5.12985 5.9096
34 2 0.279424 2.90143 2.65225 10.3395
35 2 0.221645 10.5803 3.15939 9.89145
36 2 0.282111 7.72127 2.23764 5.09175
37 2 0.301441 6.97132 0.975159 1.4228
38 2 0.317765 4.10914 10.6828 3.94542
39 2 0.28017 8.48603 0.579479 9.33978
40 2 0.238476 1.0857 2.73149 2.26844
41 2 0.278282 5.73575 9.48452 8.15195
42 2 0.304216 8.68228 7.89454 10.1949
43 2 0.248368 6.8572 3.92408 2.61626
44 2 0.228639 6.52623 5.34876 0.364056
45 2 0.248892 5.60476 1.75135 6.75034
46 2 0.248988 3.40521 1.76824 2.46952
47 2 0.246765 9.01299 6.29916 3.73622
48 2 0.291761 7.54329 8.32492 5.61658
49 2 0.278868 5.77506 9.3194 2.66039
50 2 0.269912 4.75998 3.40829 8.64301
51 2 0.241664 1.01569 5.68111 2.97356
52 2 0.224009 9.12382 1.87578 1.47334
53 2 0.234267 3.38058 0.675866 8.55878
54 2 0.262099 4.3867 10.6698 0.66947
55 2 0.252296 6.69551 7.77137 8.47695
56 2 0.222446 1.32263 6.25049 5.76126
57 2 0.276834 3.83941 4.50713 2.46414
58 2 0.259354 6.6882 4.25867 7.36018
59 2 0.271417 9.3445 3.19484 3.58394
60 2 0.314789 4.229 10.5675 6.34391
61 1 -1.02335 9.98584 4.42727 5.55409
62 1 -0.978831 7.49288 4.77028 4.99743
63 1 -0.961639 0.0209123 6.29395 10.1275
64 1 -0.991608 0.476494 8.81279 10.1987
65 1 -0.9923 2.47009 9.11271 5.11392
66 1 -0.953575 5.85395 1.18729 9.5851
67 1 -0.998526 6.84095 9.63442 -0.0784
68 1 -0.965493 4.03782 4.95505 0.0144183
69 1 -0.958875 6.04723 6.44046 6.26678
70 1 -0.964253 2.21524 1.05937 5.26419
71 1 -0.938653 1.58296 4.6523 0.638292
72 1 -0.979706 9.22448 10.0316 0.807735
73 1 -1.11745 6.49147 10.4607 5.00901
74 1 -0.967885 5.34148 2.91188 0.749823
75 1 -0.975385 10.4663 1.88913 5.65984
76 1 -0.721434 4.98294 8.41771 5.02844
