# the first three lines are comments...
# columns in order: id type q x y z
# input file for LAMMPS generated by exma
76 atoms
2 atom types

0.0 	 1.060909e+01 	 xlo xhi
0.0 	 1.060909e+01 	 ylo yhi
0.0 	 1.060909e+01 	 zlo zhi

Atoms

1  2  0.000000e+00  1.617571e+00  3.886408e+00  3.788966e+00
2  2  0.000000e+00  8.629734e+00  5.254276e+00  9.168505e+00
3  2  0.000000e+00  1.036894e+01  6.345301e-01  3.744825e+00
4  2  0.000000e+00  8.597128e+00  3.008808e+00  7.373202e+00
5  2  0.000000e+00  1.103984e+00  8.708604e+00  9.487127e-01
6  2  0.000000e+00  1.013052e+00  5.160923e+00  7.908139e+00
7  2  0.000000e+00  3.613964e-01  6.515995e-01  8.115561e+00
8  2  0.000000e+00  3.462051e+00  7.141397e+00  2.812871e+00
9  2  0.000000e+00  5.433180e+00  7.105967e+00  4.217547e-01
10  2  0.000000e+00  1.560908e+00  5.658455e-01  2.789646e+00
11  2  0.000000e+00  8.611314e+00  1.720765e+00  4.012094e+00
12  2  0.000000e+00  2.802132e+00  4.550489e+00  6.875381e+00
13  2  0.000000e+00  9.753680e-02  7.296849e+00  7.699140e+00
14  2  0.000000e+00  8.492566e+00  1.039159e+00  7.657242e+00
15  2  0.000000e+00  9.203020e+00  4.047870e+00  2.720127e+00
16  2  0.000000e+00  6.025977e-01  9.809529e+00  7.032329e+00
17  2  0.000000e+00  4.849482e+00  5.519418e+00  9.483577e+00
18  2  0.000000e+00  2.421201e+00  7.080087e+00  5.076853e-01
19  2  0.000000e+00  8.914686e+00  8.394185e+00  8.616775e+00
20  2  0.000000e+00  7.036175e+00  6.897276e-02  2.774671e+00
21  2  0.000000e+00  7.981059e+00  8.254372e+00  2.333747e+00
22  2  0.000000e+00  2.495855e+00  9.007952e+00  9.078188e+00
23  2  0.000000e+00  7.822532e+00  3.403210e+00  1.051680e+01
24  2  0.000000e+00  8.854432e+00  2.801180e-01  6.362134e+00
25  2  0.000000e+00  2.304467e+00  1.829693e-01  1.043348e+01
26  2  0.000000e+00  7.780809e+00  6.529028e+00  3.258897e+00
27  2  0.000000e+00  3.037715e+00  8.005667e+00  6.927909e+00
28  2  0.000000e+00  4.405888e+00  1.504715e+00  5.190746e+00
29  2  0.000000e+00  8.867413e+00  4.705504e+00  7.299259e+00
30  2  0.000000e+00  1.250333e+00  7.424290e+00  2.899192e+00
31  2  0.000000e+00  2.673266e+00  6.562982e+00  9.366488e+00
32  2  0.000000e+00  5.510927e+00  2.340231e+00  3.852330e+00
33  2  0.000000e+00  4.635955e+00  3.840952e+00  5.307456e+00
34  2  0.000000e+00  2.674082e+00  2.693401e+00  9.781550e+00
35  2  0.000000e+00  7.787840e-01  2.631661e+00  9.213168e+00
36  2  0.000000e+00  7.945694e+00  2.263075e+00  5.454484e+00
37  2  0.000000e+00  7.271242e+00  1.100930e+00  1.377730e+00
38  2  0.000000e+00  4.585343e+00  1.041316e+01  3.148384e+00
39  2  0.000000e+00  9.055910e+00  6.981947e-01  9.232002e+00
40  2  0.000000e+00  1.581613e+00  1.992442e+00  2.367359e+00
41  2  0.000000e+00  6.181943e+00  1.002773e+01  8.047678e+00
42  2  0.000000e+00  8.875359e+00  7.410681e+00  1.021821e+01
43  2  0.000000e+00  6.032396e+00  3.832136e+00  2.418785e+00
44  2  0.000000e+00  6.202429e+00  4.569628e+00  9.684965e-01
45  2  0.000000e+00  5.628967e+00  2.146341e+00  6.956279e+00
46  2  0.000000e+00  3.447224e+00  3.274487e+00  3.078591e+00
47  2  0.000000e+00  1.022480e+01  6.384682e+00  5.514174e+00
48  2  0.000000e+00  7.710626e+00  7.691725e+00  6.395344e+00
49  2  0.000000e+00  4.607558e+00  8.982976e+00  2.174287e+00
50  2  0.000000e+00  4.123230e+00  2.886339e+00  8.465463e+00
51  2  0.000000e+00  1.645420e-01  5.888819e+00  2.227070e+00
52  2  0.000000e+00  9.996191e+00  2.641809e+00  1.292101e+00
53  2  0.000000e+00  3.492859e+00  1.076422e+00  9.638413e+00
54  2  0.000000e+00  4.804086e+00  9.336732e+00  9.931941e+00
55  2  0.000000e+00  4.755627e+00  6.948765e+00  8.430860e+00
56  2  0.000000e+00  1.810927e+00  6.155662e+00  5.259645e+00
57  2  0.000000e+00  4.006463e+00  5.242300e+00  2.872495e+00
58  2  0.000000e+00  5.319907e+00  4.053380e+00  7.679540e+00
59  2  0.000000e+00  7.743743e+00  2.755998e+00  3.152807e+00
60  2  0.000000e+00  3.124280e+00  2.704371e-01  7.123800e+00
61  1  0.000000e+00  9.471595e+00  3.975254e+00  5.051962e+00
62  1  0.000000e+00  7.008055e+00  4.482225e+00  5.068173e+00
63  1  0.000000e+00  3.274238e-01  6.587197e+00  9.894922e-03
64  1  0.000000e+00  1.908104e-01  8.920702e+00  9.230521e+00
65  1  0.000000e+00  2.513714e+00  9.299049e+00  4.506951e+00
66  1  0.000000e+00  6.294895e+00  1.141977e+00  9.868732e+00
67  1  0.000000e+00  7.265507e+00  9.532883e+00  1.026742e+01
68  1  0.000000e+00  3.675820e+00  4.300630e+00  2.662451e-01
69  1  0.000000e+00  5.320654e+00  6.380839e+00  5.859235e+00
70  1  0.000000e+00  2.037364e+00  1.403375e+00  4.897565e+00
71  1  0.000000e+00  1.253065e+00  4.244060e+00  4.200757e-01
72  1  0.000000e+00  9.680683e+00  1.013299e+01  6.238841e-01
73  1  0.000000e+00  6.684142e+00  1.047996e+01  5.377893e+00
74  1  0.000000e+00  4.671547e+00  1.913281e+00  1.185933e+00
75  1  0.000000e+00  3.722944e-01  2.236784e+00  6.293616e+00
76  1  0.000000e+00  4.964120e+00  8.935975e+00  5.451046e+00
