ITEM: TIMESTEP
0
ITEM: NUMBER OF ATOMS
76
ITEM: BOX BOUNDS pp pp pp
0.0	1.060909e+01
0.0	1.060909e+01
0.0	1.060909e+01
ITEM: ATOMS id type q x y z
1  2  2.722980e-01  1.633450e+00  3.477660e+00  4.604840e+00
2  2  2.268030e-01  8.428730e+00  5.630160e+00  8.938700e+00
3  2  2.701030e-01  5.974310e-01  2.431740e-01  3.559290e+00
4  2  2.690380e-01  8.812380e+00  2.895400e+00  7.254000e+00
5  2  2.719530e-01  2.008000e-04  8.073470e+00  1.937010e+00
6  2  2.568280e-01  1.564400e-01  4.597600e+00  7.994500e+00
7  2  2.224940e-01  2.712980e-01  9.259300e-01  8.403580e+00
8  2  2.610530e-01  3.183870e+00  7.162190e+00  3.502480e+00
9  2  2.344450e-01  4.962830e+00  7.644540e+00  6.938120e-01
10  2  2.399450e-01  2.529570e+00  9.221770e+00  2.304620e+00
11  2  2.549990e-01  8.811710e+00  4.888750e-01  3.823700e+00
12  2  2.498690e-01  2.119430e+00  2.804260e+00  7.193480e+00
13  2  2.587220e-01  5.985280e-01  7.588020e+00  7.959670e+00
14  2  2.694870e-01  7.192410e+00  4.737790e-01  7.450820e+00
15  2  2.339600e-01  9.429720e+00  4.965700e+00  1.260590e+00
16  2  2.704910e-01  1.170260e+00  1.012110e+01  6.991850e+00
17  2  2.519470e-01  4.960340e+00  6.345290e+00  8.659930e+00
18  2  3.066450e-01  2.310160e+00  7.011450e+00  4.838080e-01
19  2  2.483910e-01  9.160370e+00  8.890040e+00  8.295970e+00
20  2  2.638000e-01  8.074470e+00  9.337350e+00  3.084130e+00
21  2  2.418950e-01  7.773170e+00  7.573970e+00  1.410780e+00
22  2  2.326970e-01  2.970290e+00  8.856050e+00  9.378120e+00
23  2  2.393760e-01  7.581030e+00  3.059920e+00  9.933460e+00
24  2  2.442340e-01  8.993050e+00  1.044230e+01  6.186200e+00
25  2  2.349360e-01  1.132510e+00  4.282050e-01  5.265310e-01
26  2  2.734170e-01  6.023570e+00  6.379570e+00  3.556250e+00
27  2  2.733990e-01  3.508290e+00  7.796300e+00  7.086970e+00
28  2  2.292150e-01  4.590540e+00  2.930900e+00  4.964710e+00
29  2  2.742830e-01  8.750810e+00  6.413080e+00  6.603440e+00
30  2  2.149680e-01  1.056860e+01  8.402360e+00  4.847390e+00
31  2  2.764660e-01  2.307770e+00  5.462590e+00  8.777070e+00
32  2  2.616500e-01  6.070310e+00  1.637390e+00  3.177360e+00
33  2  2.342680e-01  3.906480e+00  5.129850e+00  5.909600e+00
34  2  2.794240e-01  2.901430e+00  2.652250e+00  1.033950e+01
35  2  2.216450e-01  1.058030e+01  3.159390e+00  9.891450e+00
36  2  2.821110e-01  7.721270e+00  2.237640e+00  5.091750e+00
37  2  3.014410e-01  6.971320e+00  9.751590e-01  1.422800e+00
38  2  3.177650e-01  4.109140e+00  1.068280e+01  3.945420e+00
39  2  2.801700e-01  8.486030e+00  5.794790e-01  9.339780e+00
40  2  2.384760e-01  1.085700e+00  2.731490e+00  2.268440e+00
41  2  2.782820e-01  5.735750e+00  9.484520e+00  8.151950e+00
42  2  3.042160e-01  8.682280e+00  7.894540e+00  1.019490e+01
43  2  2.483680e-01  6.857200e+00  3.924080e+00  2.616260e+00
44  2  2.286390e-01  6.526230e+00  5.348760e+00  3.640560e-01
45  2  2.488920e-01  5.604760e+00  1.751350e+00  6.750340e+00
46  2  2.489880e-01  3.405210e+00  1.768240e+00  2.469520e+00
47  2  2.467650e-01  9.012990e+00  6.299160e+00  3.736220e+00
48  2  2.917610e-01  7.543290e+00  8.324920e+00  5.616580e+00
49  2  2.788680e-01  5.775060e+00  9.319400e+00  2.660390e+00
50  2  2.699120e-01  4.759980e+00  3.408290e+00  8.643010e+00
51  2  2.416640e-01  1.015690e+00  5.681110e+00  2.973560e+00
52  2  2.240090e-01  9.123820e+00  1.875780e+00  1.473340e+00
53  2  2.342670e-01  3.380580e+00  6.758660e-01  8.558780e+00
54  2  2.620990e-01  4.386700e+00  1.066980e+01  6.694700e-01
55  2  2.522960e-01  6.695510e+00  7.771370e+00  8.476950e+00
56  2  2.224460e-01  1.322630e+00  6.250490e+00  5.761260e+00
57  2  2.768340e-01  3.839410e+00  4.507130e+00  2.464140e+00
58  2  2.593540e-01  6.688200e+00  4.258670e+00  7.360180e+00
59  2  2.714170e-01  9.344500e+00  3.194840e+00  3.583940e+00
60  2  3.147890e-01  4.229000e+00  1.056750e+01  6.343910e+00
61  1  -1.023350e+00  9.985840e+00  4.427270e+00  5.554090e+00
62  1  -9.788310e-01  7.492880e+00  4.770280e+00  4.997430e+00
63  1  -9.616390e-01  2.091230e-02  6.293950e+00  1.012750e+01
64  1  -9.916080e-01  4.764940e-01  8.812790e+00  1.019870e+01
65  1  -9.923000e-01  2.470090e+00  9.112710e+00  5.113920e+00
66  1  -9.535750e-01  5.853950e+00  1.187290e+00  9.585100e+00
67  1  -9.985260e-01  6.840950e+00  9.634420e+00  -7.840000e-02
68  1  -9.654930e-01  4.037820e+00  4.955050e+00  1.441830e-02
69  1  -9.588750e-01  6.047230e+00  6.440460e+00  6.266780e+00
70  1  -9.642530e-01  2.215240e+00  1.059370e+00  5.264190e+00
71  1  -9.386530e-01  1.582960e+00  4.652300e+00  6.382920e-01
72  1  -9.797060e-01  9.224480e+00  1.003160e+01  8.077350e-01
73  1  -1.117450e+00  6.491470e+00  1.046070e+01  5.009010e+00
74  1  -9.678850e-01  5.341480e+00  2.911880e+00  7.498230e-01
75  1  -9.753850e-01  1.046630e+01  1.889130e+00  5.659840e+00
76  1  -7.214340e-01  4.982940e+00  8.417710e+00  5.028440e+00
